============================== echo of input deck ==============================
echo
title "VS98/6-31+G* h2o gradient "

start h2o

geometry
   O                    -0.091502   -0.000000   -0.071590
   H                    -0.108430   -0.000000    0.892753
   H                     0.840442    0.000000   -0.320034
end

basis
* library 6-31+G*
end

dft
xc vs98
mult 1
grid fine
end

task dft gradient
================================================================================

 Output coordinates in angstroms (scale by  1.889725989 to convert to a.u.)

  No.       Tag          Charge          X              Y              Z
 ---- ---------------- ---------- -------------- -------------- --------------
    1 O                    8.0000     0.00000000     0.00000000     0.11617942
    2 H                    1.0000     0.76993675     0.00000000    -0.46471766
    3 H                    1.0000    -0.76993675     0.00000000    -0.46471766

         Total DFT energy =      -76.439765816937

                       DFT Final Molecular Orbital Analysis
                       ------------------------------------

 Vector    1  Occ=2.000000D+00  E=-1.889380D+01  Symmetry=a1

 Vector    2  Occ=2.000000D+00  E=-9.611242D-01  Symmetry=a1

 Vector    3  Occ=2.000000D+00  E=-4.992121D-01  Symmetry=b1

 Vector    4  Occ=2.000000D+00  E=-3.441769D-01  Symmetry=a1

 Vector    5  Occ=2.000000D+00  E=-2.670417D-01  Symmetry=b2

 Vector    6  Occ=0.000000D+00  E= 2.048242D-02  Symmetry=a1

 Vector    7  Occ=0.000000D+00  E= 1.133558D-01  Symmetry=b1

 Vector    8  Occ=0.000000D+00  E= 1.591671D-01  Symmetry=b2

 Vector    9  Occ=0.000000D+00  E= 1.624428D-01  Symmetry=a1

 Vector   10  Occ=0.000000D+00  E= 2.074637D-01  Symmetry=b1

 Vector   11  Occ=0.000000D+00  E= 2.364992D-01  Symmetry=a1

 Vector   12  Occ=0.000000D+00  E= 9.270607D-01  Symmetry=b1

 Vector   13  Occ=0.000000D+00  E= 1.015913D+00  Symmetry=a1

 Vector   14  Occ=0.000000D+00  E= 1.102614D+00  Symmetry=b2

 Vector   15  Occ=0.000000D+00  E= 1.106986D+00  Symmetry=b1

     Multipole analysis of the density
     ---------------------------------

     L   x y z        total         alpha         beta         nuclear
     -   - - -        -----         -----         ----         -------
     0   0 0 0     -0.000000     -5.000000     -5.000000     10.000000

     1   1 0 0     -0.000000     -0.000000     -0.000000      0.000000
     1   0 1 0     -0.000000     -0.000000     -0.000000      0.000000
     1   0 0 1     -0.869112     -0.434556     -0.434556      0.000000

     2   2 0 0     -3.209796     -3.721834     -3.721834      4.233872
     2   1 1 0      0.000000      0.000000      0.000000      0.000000
     2   1 0 1     -0.000000     -0.000000     -0.000000      0.000000
     2   0 2 0     -5.878420     -2.939210     -2.939210      0.000000
     2   0 1 1      0.000000      0.000000      0.000000      0.000000

 Total times  cpu:        0.8s     wall:        0.8s
